 Q-Chem 5.4 (devel), Q-Chem, Inc., Pleasanton, CA (2021)
 Q-Chem 5.4.2 for Intel X86 EM64T Linux

User input:
--------------------------------------------------------------
$molecule
0 1  ! charge = 0, multiplicty = 1
  H
  H H r

  r = 0.743373 ! Angstrom, opt with ccsd/aug-cc-pVTZ
$end

$rem
! method
  job_type = force
  method = eom-ccsd
  ee_states = [0, 0, 0, 0, 0, 1, 0, 0]
  cc_state_to_opt = [6, 1]
  basis = aug-cc-pVTZ

! memory
  mem_total = 102400
  cc_memory = 81920
$end
--------------------------------------------------------------

             Standard Nuclear Orientation (Angstroms)
    I     Atom           X                Y                Z
 ----------------------------------------------------------------
    1      H       0.0000000000     0.0000000000    -0.3716865000
    2      H       0.0000000000     0.0000000000     0.3716865000
 ----------------------------------------------------------------

    7      -1.1329997880      4.60e-09  Convergence criterion met
 Total energy in the final basis set =       -1.1329997880
 CCSD total energy          = -1.17263546
 EOMEE transition 1/B1u
 Total energy = -0.70538919 a.u.  Excitation energy = 12.7144 eV.

             Orbital Energies (a.u.) and Symmetries
 --------------------------------------------------------------

 Alpha MOs, Restricted
 -- Occupied --
 -0.594
  1 Ag

 Beta MOs, Restricted
 -- Occupied --
 -0.594
  1 Ag

          Ground-State Mulliken Net Atomic Charges

     Atom                 Charge (a.u.)
  ----------------------------------------
      1 H                    -0.000000
      2 H                     0.000000
  ----------------------------------------
  Sum of atomic charges =     0.000000

                    Cartesian Multipole Moments
 -----------------------------------------------------------------
    Charge (ESU x 10^10)
                -0.0000
    Dipole Moment (Debye)
         X       0.0000      Y      -0.0000      Z      -0.0000
       Tot       0.0000
    Quadrupole Moments (Debye-Ang)
        XX      -7.5010     XY       0.0000     YY      -7.5010
        XZ       0.0000     YZ       0.0000     ZZ     -21.1811

 Total job time:  39.81s(wall), 59.46s(cpu)
        *  Thank you very much for using Q-Chem.  Have a nice day.  *
