 Q-Chem 5.4 (devel), Q-Chem, Inc., Pleasanton, CA (2021)
 Q-Chem 5.4.1 for Intel X86 EM64T Linux

User input:
--------------------------------------------------------------
$molecule
0 1  ! charge = 0, multiplicty = 1
  H
  H H r

  r = 0.743373 ! Angstrom, from opt in ccsd/aug-cc-pVTZ
$end

$rem
  jobtype = freq
  method = ccsd
  basis = aug-cc-pVTZ
$end
--------------------------------------------------------------

    7      -1.1329997876      4.60e-09  Convergence criterion met
 Total energy in the final basis set =       -1.1329997876
 CCSD total energy          = -1.17263546
    4      -1.1329997792      4.71e-09  Convergence criterion met
 Total energy in the final basis set =       -1.1329997792
 CCSD total energy          = -1.17263546
    4      -1.1329997792      9.42e-09  Convergence criterion met
 Total energy in the final basis set =       -1.1329997792
 CCSD total energy          = -1.17263546
    4      -1.1329997792      6.66e-09  Convergence criterion met
 Total energy in the final basis set =       -1.1329997792
 CCSD total energy          = -1.17263546
    4      -1.1329997792      9.42e-09  Convergence criterion met
 Total energy in the final basis set =       -1.1329997792
 CCSD total energy          = -1.17263546
    4      -1.1329997792      9.42e-09  Convergence criterion met
 Total energy in the final basis set =       -1.1329997792
 CCSD total energy          = -1.17263546
    4      -1.1329997792      6.66e-09  Convergence criterion met
 Total energy in the final basis set =       -1.1329997792
 CCSD total energy          = -1.17263546
    4      -1.1329997792      9.42e-09  Convergence criterion met
 Total energy in the final basis set =       -1.1329997792
 CCSD total energy          = -1.17263546
    5      -1.1329866776      8.93e-10  Convergence criterion met
 Total energy in the final basis set =       -1.1329866776
 CCSD total energy          = -1.17263429
    5      -1.1330115442      1.64e-09  Convergence criterion met
 Total energy in the final basis set =       -1.1330115442
 CCSD total energy          = -1.17263532

                    Orbital Energies (a.u.)
 --------------------------------------------------------------

 Alpha MOs
 -- Occupied --
 -0.5939

          Ground-State Mulliken Net Atomic Charges

     Atom                 Charge (a.u.)
  ----------------------------------------
      1 H                    -0.000000
      2 H                     0.000000
  ----------------------------------------
  Sum of atomic charges =     0.000000

                    Cartesian Multipole Moments
 -----------------------------------------------------------------
    Charge (ESU x 10^10)
                -0.0000
    Dipole Moment (Debye)
         X       0.0000      Y       0.0000      Z       0.0000
       Tot       0.0000
    Quadrupole Moments (Debye-Ang)
        XX      -2.0631     XY      -0.0000     YY      -2.0631
        XZ      -0.0000     YZ      -0.0000     ZZ      -1.4418

             Standard Nuclear Orientation (Angstroms)
    I     Atom           X                Y                Z
 ----------------------------------------------------------------
    1      H       0.0000000000     0.0000000000    -0.3716865000
    2      H       0.0000000000     0.0000000000     0.3716865000
 ----------------------------------------------------------------

 Frequency:      4395.49
 Force Cnst:     11.4723
 Red. Mass:       1.0078
 IR Intens:        0.000

 STANDARD THERMODYNAMIC QUANTITIES AT   298.15 K  AND     1.00 ATM

   This Molecule has  0 Imaginary Frequencies
   Zero point vibrational energy:        6.284 kcal/mol

   Atom    1 Element H  Has Mass    1.00783
   Atom    2 Element H  Has Mass    1.00783
   Molecular Mass:     2.015660 amu
   Principal axes and moments of inertia in amu*Bohr^2:
                             1           2           3
    Eigenvalues --        0.00000     0.99442     0.99442
          X               0.00000     0.00000     1.00000
          Y               0.00000     1.00000     0.00000
          Z               1.00000     0.00000     0.00000
   Rotational Symmetry Number is   2
   The Molecule is a Symmetric Top
   Translational Enthalpy:        0.889 kcal/mol
   Rotational Enthalpy:           0.592 kcal/mol
   Vibrational Enthalpy:          6.284 kcal/mol
   gas constant (RT):             0.592 kcal/mol
   Translational Entropy:        28.080  cal/mol.K
   Rotational Entropy:            3.055  cal/mol.K
   Vibrational Entropy:           0.000  cal/mol.K

   Total Enthalpy:                8.357 kcal/mol
   Total Entropy:                31.135  cal/mol.K
 Total job time:  150.85s(wall), 330.23s(cpu)
        *  Thank you very much for using Q-Chem.  Have a nice day.  *
