 Q-Chem 5.2, Q-Chem, Inc., Pleasanton, CA (2019)
 Q-Chem 5.2.1 for Intel X86 EM64T Linux

User input:
--------------------------------------------------------------
$molecule
1 2
C    0.5674409   -0.0000027    0.0000000
O   -0.6689080    0.0000068    0.0000000
H    1.0821274    0.9535251    0.0000000
H    1.0821126   -0.9535385    0.0000000
$end

$rem
BASIS  =  6-31G
GUI  =  2
JOB_TYPE  =  Frequency
METHOD  =  HF
SCF_CONVERGENCE  =  8
$end

--------------------------------------------------------------

             Standard Nuclear Orientation (Angstroms)
    I     Atom           X                Y                Z
 ----------------------------------------------------------------
    1      C       0.0000000017    -0.0000000000     0.5538395625
    2      O       0.0000000000     0.0000000000    -0.6825093375
    3      H       0.9535317529    -0.0000000000     1.0685187424
    4      H      -0.9535317529     0.0000000000     1.0685187424
 ----------------------------------------------------------------

   17    -113.4627786940      2.87e-09  Convergence criterion met
 Total energy in the final basis set =     -113.4627786940

             Orbital Energies (a.u.) and Symmetries
 --------------------------------------------------------------

 Alpha MOs, Unrestricted
 -- Occupied --
-21.082 -11.713  -1.897  -1.242  -1.143  -1.047  -0.999  -0.905
  1 A1    2 A1    3 A1    4 A1    1 B1    5 A1    1 B2    2 B1

 Beta MOs, Unrestricted
 -- Occupied --
-21.029 -11.721  -1.759  -1.203  -1.007  -0.997  -0.897
  1 A1    2 A1    3 A1    4 A1    1 B1    5 A1    1 B2

          Ground-State Mulliken Net Atomic Charges

     Atom                 Charge (a.u.)    Spin (a.u.)
  --------------------------------------------------------
      1 C                     0.193474      -0.395439
      2 O                     0.037838       1.185019
      3 H                     0.384344       0.105210
      4 H                     0.384344       0.105210
  --------------------------------------------------------
  Sum of atomic charges =     1.000000

                    Cartesian Multipole Moments
 -----------------------------------------------------------------
    Charge (ESU x 10^10)
                 4.8032
    Dipole Moment (Debye)
         X      -0.0000      Y       0.0000      Z       3.3995
       Tot       3.3995
    Quadrupole Moments (Debye-Ang)
        XX      -7.2389     XY      -0.0000     YY      -9.9515
        XZ       0.0000     YZ       0.0000     ZZ      -7.3566

 Frequency:      1111.27                1286.59                1475.16
 Force Cnst:      0.9527                 1.2971                 1.7222
 Red. Mass:       1.3094                 1.3299                 1.3432
 IR Intens:        7.756                 28.676                 86.333
 Frequency:      1634.87                3199.40                3348.62
 Force Cnst:      5.2854                 6.3177                 7.4168
 Red. Mass:       3.3563                 1.0475                 1.1226
 IR Intens:        0.251                 91.492                104.334

 STANDARD THERMODYNAMIC QUANTITIES AT   298.15 K  AND     1.00 ATM

   This Molecule has  0 Imaginary Frequencies
   Zero point vibrational energy:       17.235 kcal/mol

   Atom    1 Element C  Has Mass   12.00000
   Atom    2 Element O  Has Mass   15.99491
   Atom    3 Element H  Has Mass    1.00783
   Atom    4 Element H  Has Mass    1.00783
   Molecular Mass:    30.010570 amu
   Principal axes and moments of inertia in amu*Bohr^2:
                             1           2           3
    Eigenvalues --        6.54463    47.43668    53.98131
          X               0.00000     1.00000     0.00000
          Y              -0.00000    -0.00000     1.00000
          Z               1.00000    -0.00000     0.00000
   Rotational Symmetry Number is   2
   The Molecule is an Asymmetric Top
   Translational Enthalpy:        0.889 kcal/mol
   Rotational Enthalpy:           0.889 kcal/mol
   Vibrational Enthalpy:         17.262 kcal/mol
   gas constant (RT):             0.592 kcal/mol
   Translational Entropy:        36.130  cal/mol.K
   Rotational Entropy:           16.090  cal/mol.K
   Vibrational Entropy:           0.108  cal/mol.K

   Total Enthalpy:               19.632 kcal/mol
   Total Entropy:                52.328  cal/mol.K

 Total job time:  0.60s(wall), 0.57s(cpu)
        *  Thank you very much for using Q-Chem.  Have a nice day.  *
