 Q-Chem 5.2, Q-Chem, Inc., Pleasanton, CA (2019)
 Q-Chem 5.2.1 for Intel X86 EM64T Linux

User input:
--------------------------------------------------------------
$molecule
0 1
C    0.5378605   -0.0001037    0.0000000
O   -0.6722762    0.0001577    0.0000000
H    1.1060959   -0.9203044    0.0000000
H    1.1064734    0.9198595    0.0000000
$end

$rem
BASIS  =  6-31G
GUI  =  2
JOB_TYPE  =  Frequency
METHOD  =  HF
SCF_CONVERGENCE  =  8
$end

--------------------------------------------------------------

             Standard Nuclear Orientation (Angstroms)
    I     Atom           X                Y                Z
 ----------------------------------------------------------------
    1      C       0.5340153438    -0.0000003264     0.0000000000
    2      O      -0.6761213844     0.0000015561    -0.0000000000
    3      H       1.1024509331     0.9200767241     0.0000000000
    4      H       1.1024280793    -0.9200872144     0.0000000000
 ----------------------------------------------------------------

   12    -113.8083665432      4.18e-09  Convergence criterion met
 Total energy in the final basis set =     -113.8083665432

             Orbital Energies (a.u.) and Symmetries
 --------------------------------------------------------------

 Alpha MOs, Restricted
 -- Occupied --
-20.594 -11.349  -1.426  -0.880  -0.708  -0.643  -0.531  -0.443
  1 A'    2 A'    3 A'    4 A'    5 A'    6 A'    1 A"    7 A'

 Beta MOs, Restricted
 -- Occupied --
-20.594 -11.349  -1.426  -0.880  -0.708  -0.643  -0.531  -0.443
  1 A'    2 A'    3 A'    4 A'    5 A'    6 A'    1 A"    7 A'

          Ground-State Mulliken Net Atomic Charges

     Atom                 Charge (a.u.)
  ----------------------------------------
      1 C                     0.158907
      2 O                    -0.454316
      3 H                     0.147705
      4 H                     0.147704
  ----------------------------------------
  Sum of atomic charges =     0.000000

                    Cartesian Multipole Moments
 -----------------------------------------------------------------
    Charge (ESU x 10^10)
                 0.0000
    Dipole Moment (Debye)
         X       3.0434      Y      -0.0000      Z       0.0000
       Tot       3.0434
    Quadrupole Moments (Debye-Ang)
        XX     -12.4472     XY       0.0000     YY     -11.4815
        XZ       0.0000     YZ      -0.0000     ZZ     -11.6381

 Frequency:      1328.98                1373.53                1673.57
 Force Cnst:      1.4129                 1.4816                 1.9782
 Red. Mass:       1.3578                 1.3329                 1.1988
 IR Intens:        5.997                 17.848                 24.340
 Frequency:      1909.76                3208.10                3299.85
 Force Cnst:     10.0971                 6.3829                 7.1712
 Red. Mass:       4.6988                 1.0526                 1.1178
 IR Intens:       90.470                 23.025                 95.343

 STANDARD THERMODYNAMIC QUANTITIES AT   298.15 K  AND     1.00 ATM

   This Molecule has  0 Imaginary Frequencies
   Zero point vibrational energy:       18.290 kcal/mol

   Atom    1 Element C  Has Mass   12.00000
   Atom    2 Element O  Has Mass   15.99491
   Atom    3 Element H  Has Mass    1.00783
   Atom    4 Element H  Has Mass    1.00783
   Molecular Mass:    30.010570 amu
   Principal axes and moments of inertia in amu*Bohr^2:
                             1           2           3
    Eigenvalues --        6.09352    46.51240    52.60591
          X               1.00000     0.00000    -0.00000
          Y              -0.00000     1.00000    -0.00000
          Z               0.00000     0.00000     1.00000
   Rotational Symmetry Number is   1
   The Molecule is an Asymmetric Top
   Translational Enthalpy:        0.889 kcal/mol
   Rotational Enthalpy:           0.889 kcal/mol
   Vibrational Enthalpy:         18.303 kcal/mol
   gas constant (RT):             0.592 kcal/mol
   Translational Entropy:        36.130  cal/mol.K
   Rotational Entropy:           17.351  cal/mol.K
   Vibrational Entropy:           0.052  cal/mol.K

   Total Enthalpy:               20.673 kcal/mol
   Total Entropy:                53.533  cal/mol.K

 Total job time:  0.53s(wall), 0.49s(cpu)
        *  Thank you very much for using Q-Chem.  Have a nice day.  *
