         Total DFT energy =      -76.336980217021

 Vector    1  Occ=2.000000D+00  E=-1.921037D+01

 Vector    2  Occ=2.000000D+00  E=-1.024521D+00

 Vector    3  Occ=2.000000D+00  E=-5.295919D-01

 Vector    4  Occ=2.000000D+00  E=-3.846084D-01

 Vector    5  Occ=2.000000D+00  E=-3.051478D-01

 Vector    6  Occ=0.000000D+00  E= 8.471485D-02

 Vector    7  Occ=0.000000D+00  E= 1.706294D-01

 Vector    8  Occ=0.000000D+00  E= 7.787528D-01

 Vector    9  Occ=0.000000D+00  E= 8.314615D-01

 Vector   10  Occ=0.000000D+00  E= 9.150762D-01

 Vector   11  Occ=0.000000D+00  E= 9.183614D-01

 Vector   12  Occ=0.000000D+00  E= 1.041551D+00

 Vector   13  Occ=0.000000D+00  E= 1.192047D+00

 Vector   14  Occ=0.000000D+00  E= 1.537343D+00

 Vector   15  Occ=0.000000D+00  E= 1.548380D+00

 Vector   16  Occ=0.000000D+00  E= 1.653299D+00

 Vector   17  Occ=0.000000D+00  E= 2.259693D+00

 Vector   18  Occ=0.000000D+00  E= 2.285018D+00

 Vector   19  Occ=0.000000D+00  E= 2.476749D+00

 Vector   20  Occ=0.000000D+00  E= 2.661370D+00

 Vector   21  Occ=0.000000D+00  E= 2.685028D+00

 Vector   22  Occ=0.000000D+00  E= 3.052079D+00

 Vector   23  Occ=0.000000D+00  E= 3.343931D+00

 Vector   24  Occ=0.000000D+00  E= 3.565095D+00

 Vector   25  Occ=0.000000D+00  E= 3.726452D+00

@ Step       Energy      Delta E   Gmax     Grms     Xrms     Xmax   Walltime
@ ---- ---------------- -------- -------- -------- -------- -------- --------
@    0     -76.33698022  0.0D+00  0.00001  0.00000  0.00000  0.00000      0.6
         Total DFT energy =      -76.336980217136

 Vector    1  Occ=2.000000D+00  E=-1.921038D+01

 Vector    2  Occ=2.000000D+00  E=-1.024518D+00

 Vector    3  Occ=2.000000D+00  E=-5.295890D-01

 Vector    4  Occ=2.000000D+00  E=-3.846080D-01

 Vector    5  Occ=2.000000D+00  E=-3.051473D-01

 Vector    6  Occ=0.000000D+00  E= 8.471260D-02

 Vector    7  Occ=0.000000D+00  E= 1.706266D-01

 Vector    8  Occ=0.000000D+00  E= 7.787496D-01

 Vector    9  Occ=0.000000D+00  E= 8.314564D-01

 Vector   10  Occ=0.000000D+00  E= 9.150750D-01

 Vector   11  Occ=0.000000D+00  E= 9.183613D-01

 Vector   12  Occ=0.000000D+00  E= 1.041550D+00

 Vector   13  Occ=0.000000D+00  E= 1.192045D+00

 Vector   14  Occ=0.000000D+00  E= 1.537343D+00

 Vector   15  Occ=0.000000D+00  E= 1.548380D+00

 Vector   16  Occ=0.000000D+00  E= 1.653299D+00

 Vector   17  Occ=0.000000D+00  E= 2.259683D+00

 Vector   18  Occ=0.000000D+00  E= 2.285010D+00

 Vector   19  Occ=0.000000D+00  E= 2.476733D+00

 Vector   20  Occ=0.000000D+00  E= 2.661361D+00

 Vector   21  Occ=0.000000D+00  E= 2.685019D+00

 Vector   22  Occ=0.000000D+00  E= 3.052065D+00

 Vector   23  Occ=0.000000D+00  E= 3.343916D+00

 Vector   24  Occ=0.000000D+00  E= 3.565085D+00

 Vector   25  Occ=0.000000D+00  E= 3.726447D+00

         Total DFT energy =    -76.336980217136
@    1     -76.33698022 -1.1D-10  0.00000  0.00000  0.00001  0.00001      1.4
@    1     -76.33698022 -1.1D-10  0.00000  0.00000  0.00001  0.00001      1.4

 Output coordinates in angstroms (scale by  1.889725989 to convert to a.u.)

  No.       Tag          Charge          X              Y              Z
 ---- ---------------- ---------- -------------- -------------- --------------
    1 O                    8.0000     0.00000000     0.00000266     0.20279825
    2 H                    1.0000     0.00000000    -0.75691401     0.79488896
    3 H                    1.0000     0.00000000     0.75691053     0.79489987

         Total DFT energy =      -76.336979748527

                       DFT Final Molecular Orbital Analysis
                       ------------------------------------

 Vector    1  Occ=2.000000D+00  E=-1.921038D+01

 Vector    2  Occ=2.000000D+00  E=-1.024518D+00

 Vector    3  Occ=2.000000D+00  E=-5.295887D-01

 Vector    4  Occ=2.000000D+00  E=-3.846076D-01

 Vector    5  Occ=2.000000D+00  E=-3.051470D-01

 Vector    6  Occ=0.000000D+00  E= 8.471269D-02

 Vector    7  Occ=0.000000D+00  E= 1.706266D-01

 Vector    8  Occ=0.000000D+00  E= 7.787495D-01

 Vector    9  Occ=0.000000D+00  E= 8.314565D-01

 Vector   10  Occ=0.000000D+00  E= 9.150751D-01

 Vector   11  Occ=0.000000D+00  E= 9.183614D-01

 Vector   12  Occ=0.000000D+00  E= 1.041550D+00

 Vector   13  Occ=0.000000D+00  E= 1.192045D+00

 Vector   14  Occ=0.000000D+00  E= 1.537343D+00

 Vector   15  Occ=0.000000D+00  E= 1.548380D+00

 Vector   16  Occ=0.000000D+00  E= 1.653299D+00

 Vector   17  Occ=0.000000D+00  E= 2.259683D+00

 Vector   18  Occ=0.000000D+00  E= 2.285010D+00

 Vector   19  Occ=0.000000D+00  E= 2.476733D+00

 Vector   20  Occ=0.000000D+00  E= 2.661361D+00

 Vector   21  Occ=0.000000D+00  E= 2.685019D+00

 Vector   22  Occ=0.000000D+00  E= 3.052064D+00

 Vector   23  Occ=0.000000D+00  E= 3.343917D+00

 Vector   24  Occ=0.000000D+00  E= 3.565086D+00

 Vector   25  Occ=0.000000D+00  E= 3.726447D+00

     Multipole analysis of the density
     ---------------------------------

     L   x y z        total         alpha         beta         nuclear
     -   - - -        -----         -----         ----         -------
     0   0 0 0     -0.000000     -5.000000     -5.000000     10.000000

     1   1 0 0      0.000000      0.000000      0.000000      0.000000
     1   0 1 0     -0.000006     -0.000020     -0.000020      0.000034
     1   0 0 1      0.815194     -2.627468     -2.627468      6.070130

     2   2 0 0     -5.309002     -2.654501     -2.654501      0.000000
     2   1 1 0      0.000000      0.000000      0.000000      0.000000
     2   1 0 1      0.000000      0.000000      0.000000      0.000000
     2   0 2 0     -3.152762     -3.622302     -3.622302      4.091841
     2   0 1 1      0.000008     -0.000013     -0.000013      0.000035

 Zero-Point correction to Energy  =   13.623 kcal/mol  (  0.021709 au)
 Thermal correction to Energy     =   15.401 kcal/mol  (  0.024543 au)
 Thermal correction to Enthalpy   =   15.993 kcal/mol  (  0.025487 au)
 Total Entropy                    =   46.445 cal/mol-K
   - Translational                =   34.593 cal/mol-K (mol. weight =  18.0106)
   - Rotational                   =   11.846 cal/mol-K (symmetry #  =        1)
   - Vibrational                  =    0.006 cal/mol-K
   - Translational                  =    2.979 cal/mol-K
   - Rotational                     =    2.979 cal/mol-K
   - Vibrational                    =    0.041 cal/mol-K
 P.Frequency       -0.00       -0.00        0.00        0.00        0.00        0.00
 P.Frequency     1669.04     3873.04     3991.70

 Normal Eigenvalue ||           Projected Infra Red Intensities
  Mode   [cm**-1]  || [atomic units] [(debye/angs)**2] [(KM/mol)] [arbitrary]
 ------ ---------- || -------------- ----------------- ---------- -----------
    1       -0.000 ||    0.090808           2.095        88.524      15.890
    2       -0.000 ||    0.000001           0.000         0.001       0.000
    3        0.000 ||    0.033185           0.766        32.350       5.807
    4        0.000 ||    0.131667           3.038       128.356      23.040
    5        0.000 ||    0.131667           3.038       128.356      23.040
    6        0.000 ||    0.013601           0.314        13.259       2.380
    7     1669.041 ||    0.078160           1.803        76.194      13.677
    8     3873.040 ||    0.004227           0.098         4.121       0.740
    9     3991.699 ||    0.031003           0.715        30.224       5.425
 ----------------------------------------------------------------------------

 Total times  cpu:        0.9s     wall:        3.6s
