 Q-Chem 5.4 (devel), Q-Chem, Inc., Pleasanton, CA (2021)
 Q-Chem 5.4.1 for Intel X86 EM64T Linux

User input:
--------------------------------------------------------------
$comment
H2O for the NWChem job specificatoin
$end

$molecule
0 1
O
H 1 B
H 1 B 2 A

B 0.96099
A 103.93126
$end

$rem
JOBTYPE FREQ
EXCHANGE pbe0
UNRESTRICTED FALSE
BASIS 6-311G**
$end

--------------------------------------------------------------

             Standard Nuclear Orientation (Angstroms)
    I     Atom           X                Y                Z
 ----------------------------------------------------------------
    1      O       0.0000000000     0.0000000000     0.1184197357
    2      H      -0.7569154083    -0.0000000000    -0.4736789426
    3      H       0.7569154083    -0.0000000000    -0.4736789426
 ----------------------------------------------------------------

    9     -76.3624340496      4.50e-09  Convergence criterion met
 Total energy in the final basis set =      -76.3624340496

             Orbital Energies (a.u.) and Symmetries
 --------------------------------------------------------------

 Alpha MOs, Restricted
 -- Occupied --
-19.180  -1.028  -0.534  -0.389  -0.311
  1 A1    2 A1    1 B1    3 A1    1 B2

 Beta MOs, Restricted
 -- Occupied --
-19.180  -1.028  -0.534  -0.389  -0.311
  1 A1    2 A1    1 B1    3 A1    1 B2

          Ground-State Mulliken Net Atomic Charges

     Atom                 Charge (a.u.)
  ----------------------------------------
      1 O                    -0.477058
      2 H                     0.238529
      3 H                     0.238529
  ----------------------------------------
  Sum of atomic charges =     0.000000

                    Cartesian Multipole Moments
 -----------------------------------------------------------------
    Charge (ESU x 10^10)
                 0.0000
    Dipole Moment (Debye)
         X      -0.0000      Y      -0.0000      Z      -2.0838
       Tot       2.0838
    Quadrupole Moments (Debye-Ang)
        XX      -4.2677     XY      -0.0000     YY      -7.1887
        XZ       0.0000     YZ       0.0000     ZZ      -6.0337

 Frequency:      1644.01                3840.54                3942.36
 Force Cnst:      1.7230                 9.0881                 9.9016
 Red. Mass:       1.0820                 1.0458                 1.0813
 IR Intens:       59.474                  6.010                 32.715

 STANDARD THERMODYNAMIC QUANTITIES AT   298.15 K  AND     1.00 ATM

   This Molecule has  0 Imaginary Frequencies
   Zero point vibrational energy:       13.476 kcal/mol

   Atom    1 Element O  Has Mass   15.99491
   Atom    2 Element H  Has Mass    1.00783
   Atom    3 Element H  Has Mass    1.00783
   Molecular Mass:    18.010570 amu
   Principal axes and moments of inertia in amu*Bohr^2:
                             1           2           3
    Eigenvalues --        2.24108     4.12391     6.36500
          X               1.00000     0.00000    -0.00000
          Y               0.00000     0.00000     1.00000
          Z              -0.00000     1.00000    -0.00000
   Rotational Symmetry Number is   2
   The Molecule is an Asymmetric Top
   Translational Enthalpy:        0.889 kcal/mol
   Rotational Enthalpy:           0.889 kcal/mol
   Vibrational Enthalpy:         13.478 kcal/mol
   gas constant (RT):             0.592 kcal/mol
   Translational Entropy:        34.608  cal/mol.K
   Rotational Entropy:           10.474  cal/mol.K
   Vibrational Entropy:           0.006  cal/mol.K

   Total Enthalpy:               15.848 kcal/mol
   Total Entropy:                45.088  cal/mol.K
 Total job time:  9.32s(wall), 6.85s(cpu)
        *  Thank you very much for using Q-Chem.  Have a nice day.  *
