                         Program Version 4.2.0 -  RELEASE  -
|  1> !pal HF 6-311G**   freq
|  2>
|  3> !bohrs
|  4> %pal nproc 4 end
|  5>
|  6> %MaxCore 7000
|  7>
|  8> * xyz 0 1
|  9> O        0.00000000     0.00000005    -0.12054473
| 10> H        0.00000000    -1.41495307     0.95656557
| 11> H        0.00000000     1.41495220     0.95656623
| 12> *
| 13>
| 14>
| 15>                          ****END OF INPUT****

CARTESIAN COORDINATES (ANGSTROEM)
---------------------------------
  O      0.000000    0.000000   -0.063790
  H      0.000000   -0.748761    0.506193
  H      0.000000    0.748760    0.506193

 Total Charge           Charge          ....    0
 Multiplicity           Mult            ....    1
 Number of Electrons    NEL             ....   10
 Basis Dimension        Dim             ....   30

ORBITAL ENERGIES
----------------

  NO   OCC          E(Eh)            E(eV)
   0   2.0000     -20.541320      -558.9577
   1   2.0000      -1.349114       -36.7113
   2   2.0000      -0.717142       -19.5144
   3   2.0000      -0.572892       -15.5892
   4   2.0000      -0.500634       -13.6229
   5   0.0000       0.152585         4.1520
   6   0.0000       0.218572         5.9477
   7   0.0000       0.577173        15.7057
   8   0.0000       0.620732        16.8910
   9   0.0000       0.997467        27.1425

MULLIKEN ATOMIC CHARGES
-----------------------
   0 O :   -0.498175
   1 H :    0.249087
   2 H :    0.249087
Sum of atomic charges:   -0.0000000

LOEWDIN ATOMIC CHARGES
----------------------
   0 O :   -0.052621
   1 H :    0.026311
   2 H :    0.026310

  Mayer bond orders larger than 0.100000
B(  0-O ,  1-H ) :   0.9629 B(  0-O ,  2-H ) :   0.9629

FINAL SINGLE POINT ENERGY       -76.047011986974

DIPOLE MOMENT
-------------
                                X             Y             Z
Electronic contribution:     -0.00000       0.00000      -0.10773
Nuclear contribution   :      0.00000      -0.00000       0.94886
                        -----------------------------------------
Total Dipole Moment    :     -0.00000      -0.00000       0.84113
                        -----------------------------------------
Magnitude (a.u.)       :      0.84113
Magnitude (Debye)      :      2.13798

VIBRATIONAL FREQUENCIES
-----------------------

Scaling factor for frequencies =  1.000000000  (already applied!)

   0:         0.00 cm**-1
   1:         0.00 cm**-1
   2:         0.00 cm**-1
   3:         0.00 cm**-1
   4:         0.00 cm**-1
   5:         0.00 cm**-1
   6:      1750.98 cm**-1
   7:      4142.03 cm**-1
   8:      4236.68 cm**-1

IR SPECTRUM
-----------

 Mode    freq (cm**-1)   T**2         TX         TY         TZ
-------------------------------------------------------------------
   6:      1750.98   78.687548  ( -0.000000   0.000002  -8.870600)
   7:      4142.03   17.796101  (  0.000000   0.000113  -4.218543)
   8:      4236.68   57.579714  ( -0.000000   7.588130   0.000066)

--------------------------
THERMOCHEMISTRY AT 298.15K
--------------------------

Temperature         ... 298.15 K
Pressure            ... 1.00 atm
Total Mass          ... 18.02 AMU

Throughout the following assumptions are being made:
  (1) The electronic state is orbitally nondegenerate
  (2) There are no thermally accessible electronically excited states
  (3) Hindered rotations indicated by low frequency modes are not
      treated as such but are treated as vibrations and this may
      cause some error
  (4) All equations used are the standard statistical mechanics
      equations for an ideal gas
  (5) All vibrations are strictly harmonic

freq.    1750.98  E(vib)   ...       0.00
freq.    4142.03  E(vib)   ...       0.00
freq.    4236.68  E(vib)   ...       0.00

------------
INNER ENERGY
------------

The inner energy is: U= E(el) + E(ZPE) + E(vib) + E(rot) + E(trans)
    E(el)   - is the total energy from the electronic structure calculation
              = E(kin-el) + E(nuc-el) + E(el-el) + E(nuc-nuc)
    E(ZPE)  - the the zero temperature vibrational energy from the frequency calculation
    E(vib)  - the the finite temperature correction to E(ZPE) due to population
              of excited vibrational states
    E(rot)  - is the rotational thermal energy
    E(trans)- is the translational thermal energy

Summary of contributions to the inner energy U:
Electronic energy                ...    -76.04701199 Eh
Zero point energy                ...      0.02307713 Eh      14.48 kcal/mol
Thermal vibrational correction   ...      0.00000171 Eh       0.00 kcal/mol
Thermal rotational correction    ...      0.00141627 Eh       0.89 kcal/mol
Thermal translational correction ...      0.00141627 Eh       0.89 kcal/mol
-----------------------------------------------------------------------
Total thermal energy                    -76.02110060 Eh

Summary of corrections to the electronic energy:
(perhaps to be used in another calculation)
Total thermal correction                  0.00283425 Eh       1.78 kcal/mol
Non-thermal (ZPE) correction              0.02307713 Eh      14.48 kcal/mol
-----------------------------------------------------------------------
Total correction                          0.02591138 Eh      16.26 kcal/mol

--------
ENTHALPY
--------

The enthalpy is H = U + kB*T
                kB is Boltzmann's constant
Total free energy                 ...    -76.02110060 Eh
Thermal Enthalpy correction       ...      0.00094421 Eh       0.59 kcal/mol
-----------------------------------------------------------------------
Total Enthalpy                    ...    -76.02015639 Eh

Note: Rotational entropy computed according to Herzberg
Infrared and Raman Spectra, Chapter V,1, Van Nostrand Reinhold, 1945
Point Group:  C2v, Symmetry Number:   2
Rotational constants in cm-1:    28.981771    14.914899     9.847220

Vibrational entropy computed according to the QRRHO of S. Grimme
Chem.Eur.J. 2012 18 9955

-------
ENTROPY
-------

The entropy contributions are T*S = T*(S(el)+S(vib)+S(rot)+S(trans))
     S(el)   - electronic entropy
     S(vib)  - vibrational entropy
     S(rot)  - rotational entropy
     S(trans)- translational entropy
The entropies will be listed as mutliplied by the temperature to get
units of energy

Electronic entropy                ...      0.00000000 Eh      0.00 kcal/mol
Vibrational entropy               ...      0.00000191 Eh      0.00 kcal/mol
Rotational entropy                ...      0.00491146 Eh      3.08 kcal/mol
Translational entropy             ...      0.01644380 Eh     10.32 kcal/mol
-----------------------------------------------------------------------
Final entropy term                ...      0.02135718 Eh     13.40 kcal/mol

In case the symmetry of your molecule has not been determined correctly
or in case you have a reason to use a different symmetry number we print
out the resulting rotational entropy values for sn=1,12 :
 --------------------------------------------------------
|  sn= 1 | S(rot)=       0.00556592 Eh      3.49 kcal/mol|
|  sn= 2 | S(rot)=       0.00491146 Eh      3.08 kcal/mol|
|  sn= 3 | S(rot)=       0.00452863 Eh      2.84 kcal/mol|
|  sn= 4 | S(rot)=       0.00425701 Eh      2.67 kcal/mol|
|  sn= 5 | S(rot)=       0.00404632 Eh      2.54 kcal/mol|
|  sn= 6 | S(rot)=       0.00387417 Eh      2.43 kcal/mol|
|  sn= 7 | S(rot)=       0.00372863 Eh      2.34 kcal/mol|
|  sn= 8 | S(rot)=       0.00360255 Eh      2.26 kcal/mol|
|  sn= 9 | S(rot)=       0.00349134 Eh      2.19 kcal/mol|
|  sn=10 | S(rot)=       0.00339186 Eh      2.13 kcal/mol|
|  sn=11 | S(rot)=       0.00330187 Eh      2.07 kcal/mol|
|  sn=12 | S(rot)=       0.00321972 Eh      2.02 kcal/mol|
 --------------------------------------------------------

-------------------
GIBBS FREE ENERGY
-------------------

The Gibbs free energy is G = H - T*S

Total enthalpy                    ...    -76.02015639 Eh
Total entropy correction          ...     -0.02135718 Eh    -13.40 kcal/mol
-----------------------------------------------------------------------
Final Gibbs free energy         ...    -76.04151357 Eh

For completeness - the Gibbs free energy minus the electronic energy
G-E(el)                           ...      0.00549842 Eh      3.45 kcal/mol

                             ****ORCA TERMINATED NORMALLY****
TOTAL RUN TIME: 0 days 0 hours 0 minutes 29 seconds 505 msec
